
  ___ ___ ___ _ _ _  
 |   |   |_  | | | | 
 | | | | | . | | | | 
 |__ |  _|___|_____|  20.1.0
 |___|_|             

User:   macenrola@macenrola-MS-7B79
Date:   Mon Jun 15 01:09:47 2020
Arch:   x86_64
Pid:    28707
Python: 3.6.10
gpaw:   /home/macenrola/anaconda3/envs/chemvae/lib/python3.6/site-packages/gpaw
_gpaw:  /home/macenrola/anaconda3/envs/chemvae/lib/python3.6/site-packages/
        _gpaw.cpython-36m-x86_64-linux-gnu.so
ase:    /home/macenrola/anaconda3/envs/chemvae/lib/python3.6/site-packages/ase (version 3.19.1)
numpy:  /home/macenrola/anaconda3/envs/chemvae/lib/python3.6/site-packages/numpy (version 1.18.1)
scipy:  /home/macenrola/anaconda3/envs/chemvae/lib/python3.6/site-packages/scipy (version 1.4.1)
libxc:  4.3.4
units:  Angstrom and eV
cores: 4
OMP_NUM_THREADS: 1

Input parameters:
  mode: {ecut: 300.0,
         gammacentered: False,
         name: pw}
  xc: PBE

System changes: positions, numbers, cell, pbc, initial_charges, initial_magmoms 

Initialize ...

C-setup:
  name: Carbon
  id: 4aa54d4b901d75f77cc0ea3eec22967b
  Z: 6
  valence: 4
  core: 2
  charge: 0.0
  file: /home/macenrola/anaconda3/envs/chemvae/share/gpaw/C.PBE.gz
  compensation charges: gauss, rc=0.20, lmax=2
  cutoffs: 1.14(filt), 1.14(core),
  valence states:
                energy  radius
    2s(2.00)   -13.751   0.635
    2p(2.00)    -5.284   0.635
    *s          13.461   0.635
    *p          21.927   0.635
    *d           0.000   0.635

  Using partial waves for C as LCAO basis

H-setup:
  name: Hydrogen
  id: d65de229564ff8ea4db303e23b6d1ecf
  Z: 1
  valence: 1
  core: 0
  charge: 0.0
  file: /home/macenrola/anaconda3/envs/chemvae/share/gpaw/H.PBE.gz
  compensation charges: gauss, rc=0.15, lmax=2
  cutoffs: 0.85(filt), 0.53(core),
  valence states:
                energy  radius
    1s(1.00)    -6.494   0.476
    *s          20.717   0.476
    *p           0.000   0.476

  Using partial waves for H as LCAO basis

Reference energy: -6240.709666

Spin-paired calculation

Occupation numbers:
  Fermi-Dirac: width=0.0000 eV

Convergence criteria:
  Maximum total energy change: 0.0005 eV / electron
  Maximum integral of absolute density change: 0.0001 electrons
  Maximum integral of absolute eigenstate change: 4e-08 eV^2
  Maximum number of iterations: 333

Symmetries present (total): 2

  ( 1  0  0)  ( 1  0  0)
  ( 0  1  0)  ( 0  1  0)
  ( 0  0  1)  ( 0  0 -1)

1 k-point (Gamma)
1 k-point in the irreducible part of the Brillouin zone
       k-points in crystal coordinates                weights
   0:     0.00000000    0.00000000    0.00000000          1/1

Wave functions: Plane wave expansion
  Cutoff energy: 300.000 eV
  Number of coefficients: 11427 (reduced to 5714)
  Pulay-stress correction: 0.000000 eV/Ang^3 (de/decut=0.000000)
  Using FFTW library
  ScaLapack parameters: grid=1x1, blocksize=None
  Wavefunction extrapolation:
    Improved wavefunction reuse through dual PAW basis 

Eigensolver
   Davidson(niter=2, smin=None, normalize=True) 

Densities:
  Coarse grid: 48*48*28 grid
  Fine grid: 96*96*56 grid
  Total Charge: 0.000000 

Density mixing:
  Method: separate
  Backend: pulay
  Linear mixing parameter: 0.05
  Mixing with 5 old densities
  Damping of long wave oscillations: 50 

Hamiltonian:
  XC and Coulomb potentials evaluated on a 96*96*56 grid
  Using the PBE Exchange-Correlation functional
 

XC parameters: PBE with 2 nearest neighbor stencil

Memory estimate:
  Process memory now: 107.67 MiB
  Calculator: 16.23 MiB
    Density: 8.22 MiB
      Arrays: 3.20 MiB
      Localized functions: 3.79 MiB
      Mixer: 1.23 MiB
    Hamiltonian: 2.18 MiB
      Arrays: 2.09 MiB
      XC: 0.00 MiB
      Poisson: 0.00 MiB
      vbar: 0.09 MiB
    Wavefunctions: 5.82 MiB
      Arrays psit_nG: 1.92 MiB
      Eigensolver: 2.39 MiB
      Projections: 0.00 MiB
      Projectors: 0.19 MiB
      PW-descriptor: 1.32 MiB

Total number of cores used: 4
Domain decomposition: 2 x 2 x 1

Number of atoms: 12
Number of atomic orbitals: 30
Number of bands in calculation: 22
Number of valence electrons: 30
Bands to converge: occupied

... initialized

Initializing position-dependent things.

Density initialized from atomic densities
Creating initial wave functions:
  22 bands from LCAO basis set

        .----------------------------.  
       /|                            |  
      / |                            |  
     /  |                            |  
    /   |                            |  
   /    |                            |  
  /     |                            |  
 *      |       H C  C H             |  
 |      |    H  C     C  H           |  
 |      .------H-C--C-H--------------.  
 |     /                            /   
 |    /                            /    
 |   /                            /     
 |  /                            /      
 | /                            /       
 |/                            /        
 *----------------------------*         

Positions:
   0 C      5.071000    6.901000    3.500000    ( 0.0000,  0.0000,  0.0000)
   1 C      4.574000    5.598000    3.500000    ( 0.0000,  0.0000,  0.0000)
   2 C      5.453000    4.515000    3.500000    ( 0.0000,  0.0000,  0.0000)
   3 C      6.831000    4.736000    3.500000    ( 0.0000,  0.0000,  0.0000)
   4 C      7.328000    6.039000    3.500000    ( 0.0000,  0.0000,  0.0000)
   5 C      6.448000    7.121000    3.500000    ( 0.0000,  0.0000,  0.0000)
   6 H      4.386000    7.744000    3.500000    ( 0.0000,  0.0000,  0.0000)
   7 H      3.500000    5.426000    3.500000    ( 0.0000,  0.0000,  0.0000)
   8 H      8.401000    6.211000    3.500000    ( 0.0000,  0.0000,  0.0000)
   9 H      6.836000    8.137000    3.500000    ( 0.0000,  0.0000,  0.0000)
  10 H      5.066000    3.500000    3.500000    ( 0.0000,  0.0000,  0.0000)
  11 H      7.516000    3.892000    3.500000    ( 0.0000,  0.0000,  0.0000)

Unit cell:
           periodic     x           y           z      points  spacing
  1. axis:    no    11.901000    0.000000    0.000000    48     0.2479
  2. axis:    no     0.000000   11.637000    0.000000    48     0.2424
  3. axis:    no     0.000000    0.000000    7.000000    28     0.2500

  Lengths:  11.901000  11.637000   7.000000
  Angles:   90.000000  90.000000  90.000000

Effective grid spacing dv^(1/3) = 0.2468

                     log10-error:    total        iterations:
           time      wfs    density  energy       fermi  poisson
iter:   1  01:09:49                 -77.587772    0             
iter:   2  01:09:49  -0.67  -0.68   -76.930821    0             
iter:   3  01:09:49  -1.00  -0.68   -72.867902    0             
iter:   4  01:09:50  -1.63  -0.91   -72.249927    0             
iter:   5  01:09:50  -1.43  -1.01   -71.868155    0             
iter:   6  01:09:50  -1.12  -1.41   -71.732685    0             
iter:   7  01:09:51  -2.04  -1.47   -71.785038    0             
iter:   8  01:09:51  -1.59  -1.42   -71.550167    0             
iter:   9  01:09:51  -3.62  -2.29   -71.545588    0             
iter:  10  01:09:51  -2.82  -2.45   -71.551575    0             
iter:  11  01:09:52  -2.53  -2.19   -71.554294    0             
iter:  12  01:09:52  -2.93  -2.16   -71.544534    0             
iter:  13  01:09:52  -4.26  -2.77   -71.544865    0             
iter:  14  01:09:53  -4.27  -2.66   -71.543889    0             
iter:  15  01:09:53  -4.79  -3.20   -71.543837    0             
iter:  16  01:09:53  -6.28  -3.80   -71.543837    0             
iter:  17  01:09:53  -5.97  -3.84   -71.543843    0             
iter:  18  01:09:54  -5.96  -3.67   -71.543838    0             
iter:  19  01:09:54  -7.68  -3.91   -71.543838    0             
iter:  20  01:09:54  -6.81  -3.96   -71.543837    0             
iter:  21  01:09:55  -6.92  -4.07   -71.543838    0             
iter:  22  01:09:55  -6.56  -4.11   -71.543839    0             
iter:  23  01:09:55  -7.73  -4.12   -71.543838    0             

Converged after 23 iterations.

Dipole moment: (-0.000042, -0.000058, 0.000000) |e|*Ang

Energy contributions relative to reference atoms: (reference = -6240.709666)

Kinetic:        +55.437293
Potential:      -60.244141
External:        +0.000000
XC:             -67.018852
Entropy (-ST):   +0.000000
Local:           +0.281862
--------------------------
Free energy:    -71.543838
Extrapolated:   -71.543838

Fermi level: -3.02510

 Band  Eigenvalues  Occupancy
    0    -20.68965    2.00000
    1    -17.88392    2.00000
    2    -17.88124    2.00000
    3    -14.19703    2.00000
    4    -14.19510    2.00000
    5    -12.18658    2.00000
    6    -10.49981    2.00000
    7    -10.20563    2.00000
    8     -9.49052    2.00000
    9     -9.48753    2.00000
   10     -8.35537    2.00000
   11     -7.50466    2.00000
   12     -7.50050    2.00000
   13     -5.59968    2.00000
   14     -5.59538    2.00000
   15     -0.45482    0.00000
   16     -0.44994    0.00000
   17     -0.25723    0.00000
   18      0.73780    0.00000
   19      0.79003    0.00000
   20      0.80793    0.00000
   21      1.14688    0.00000

Gap: 5.141 eV
Transition (v -> c):
  (s=0, k=0, n=14, [0.00, 0.00, 0.00]) -> (s=0, k=0, n=15, [0.00, 0.00, 0.00])

Forces in eV/Ang:
  0 C    -0.13335    0.14836    0.00000
  1 C    -0.25751   -0.05921    0.00000
  2 C    -0.04414   -0.16436    0.00000
  3 C     0.10796   -0.18333    0.00000
  4 C     0.21894    0.03064    0.00000
  5 C     0.10910    0.23589    0.00000
  6 H    -0.42935    0.53146    0.00000
  7 H    -0.62929   -0.10005    0.00000
  8 H     0.66028    0.10704    0.00000
  9 H     0.23117    0.59013    0.00000
 10 H    -0.24812   -0.62722    0.00000
 11 H     0.41582   -0.50981    0.00000

System changes: positions 

Initializing position-dependent things.

Density initialized from wave functions
        .----------------------------.  
       /|                            |  
      / |                            |  
     /  |                            |  
    /   |                            |  
   /    |                            |  
  /     |                            |  
 *      |       H C  C H             |  
 |      |    H  C     C  H           |  
 |      .------H-C--C-H--------------.  
 |     /                            /   
 |    /                            /    
 |   /                            /     
 |  /                            /      
 | /                            /       
 |/                            /        
 *----------------------------*         

Positions:
   0 C      5.069095    6.903119    3.500000    ( 0.0000,  0.0000,  0.0000)
   1 C      4.570321    5.597154    3.500000    ( 0.0000,  0.0000,  0.0000)
   2 C      5.452369    4.512652    3.500000    ( 0.0000,  0.0000,  0.0000)
   3 C      6.832542    4.733381    3.500000    ( 0.0000,  0.0000,  0.0000)
   4 C      7.331128    6.039438    3.500000    ( 0.0000,  0.0000,  0.0000)
   5 C      6.449559    7.124370    3.500000    ( 0.0000,  0.0000,  0.0000)
   6 H      4.379866    7.751592    3.500000    ( 0.0000,  0.0000,  0.0000)
   7 H      3.491010    5.424571    3.500000    ( 0.0000,  0.0000,  0.0000)
   8 H      8.410433    6.212529    3.500000    ( 0.0000,  0.0000,  0.0000)
   9 H      6.839302    8.145430    3.500000    ( 0.0000,  0.0000,  0.0000)
  10 H      5.062455    3.491040    3.500000    ( 0.0000,  0.0000,  0.0000)
  11 H      7.521940    3.884717    3.500000    ( 0.0000,  0.0000,  0.0000)

Unit cell:
           periodic     x           y           z      points  spacing
  1. axis:    no    11.901000    0.000000    0.000000    48     0.2479
  2. axis:    no     0.000000   11.637000    0.000000    48     0.2424
  3. axis:    no     0.000000    0.000000    7.000000    28     0.2500

  Lengths:  11.901000  11.637000   7.000000
  Angles:   90.000000  90.000000  90.000000

Effective grid spacing dv^(1/3) = 0.2468

                     log10-error:    total        iterations:
           time      wfs    density  energy       fermi  poisson
iter:   1  01:09:56  -3.27          -71.579860    0             
iter:   2  01:09:56  -4.61  -2.72   -71.579878    0             
iter:   3  01:09:56  -4.98  -2.74   -71.579719    0             
iter:   4  01:09:57  -5.56  -3.11   -71.579715    0             
iter:   5  01:09:57  -5.63  -3.32   -71.579705    0             
iter:   6  01:09:57  -6.05  -3.57   -71.579705    0             
iter:   7  01:09:57  -7.04  -3.71   -71.579703    0             
iter:   8  01:09:58  -6.55  -3.90   -71.579703    0             
iter:   9  01:09:58  -7.04  -4.14   -71.579703    0             
iter:  10  01:09:58  -7.67  -4.21   -71.579703    0             

Converged after 10 iterations.

Dipole moment: (-0.000029, 0.000057, 0.000000) |e|*Ang

Energy contributions relative to reference atoms: (reference = -6240.709666)

Kinetic:        +52.715239
Potential:      -58.221590
External:        +0.000000
XC:             -66.353133
Entropy (-ST):   +0.000000
Local:           +0.279781
--------------------------
Free energy:    -71.579703
Extrapolated:   -71.579703

Fermi level: -3.03168

 Band  Eigenvalues  Occupancy
    0    -20.65301    2.00000
    1    -17.85694    2.00000
    2    -17.85666    2.00000
    3    -14.17267    2.00000
    4    -14.16914    2.00000
    5    -12.14215    2.00000
    6    -10.47782    2.00000
    7    -10.19221    2.00000
    8     -9.47247    2.00000
    9     -9.46814    2.00000
   10     -8.33366    2.00000
   11     -7.50235    2.00000
   12     -7.49770    2.00000
   13     -5.59309    2.00000
   14     -5.58997    2.00000
   15     -0.47339    0.00000
   16     -0.46935    0.00000
   17     -0.26411    0.00000
   18      0.73308    0.00000
   19      0.78529    0.00000
   20      0.80135    0.00000
   21      1.14837    0.00000

Gap: 5.117 eV
Transition (v -> c):
  (s=0, k=0, n=14, [0.00, 0.00, 0.00]) -> (s=0, k=0, n=15, [0.00, 0.00, 0.00])

Forces in eV/Ang:
  0 C    -0.16931    0.20133    0.00000
  1 C    -0.25402   -0.03270    0.00000
  2 C    -0.11755   -0.26053    0.00000
  3 C     0.18406   -0.19785    0.00000
  4 C     0.26507    0.04185    0.00000
  5 C     0.09217    0.22776    0.00000
  6 H    -0.28155    0.34933    0.00000
  7 H    -0.44681   -0.07301    0.00000
  8 H     0.44587    0.06959    0.00000
  9 H     0.16509    0.41796    0.00000
 10 H    -0.15883   -0.40123    0.00000
 11 H     0.27554   -0.34238    0.00000

System changes: positions 

Initializing position-dependent things.

Density initialized from wave functions
        .----------------------------.  
       /|                            |  
      / |                            |  
     /  |                            |  
    /   |                            |  
   /    |                            |  
  /     |                            |  
 *      |       HC   C H             |  
 |      |    H C       C H           |  
 |      .------H-C---CH--------------.  
 |     /                            /   
 |    /                            /    
 |   /                            /     
 |  /                            /      
 | /                            /       
 |/                            /        
 *----------------------------*         

Positions:
   0 C      5.059577    6.914382    3.500000    ( 0.0000,  0.0000,  0.0000)
   1 C      4.555725    5.595132    3.500000    ( 0.0000,  0.0000,  0.0000)
   2 C      5.446027    4.498230    3.500000    ( 0.0000,  0.0000,  0.0000)
   3 C      6.842686    4.722107    3.500000    ( 0.0000,  0.0000,  0.0000)
   4 C      7.346085    6.041778    3.500000    ( 0.0000,  0.0000,  0.0000)
   5 C      6.454941    7.137484    3.500000    ( 0.0000,  0.0000,  0.0000)
   6 H      4.362898    7.772638    3.500000    ( 0.0000,  0.0000,  0.0000)
   7 H      3.464368    5.420233    3.500000    ( 0.0000,  0.0000,  0.0000)
   8 H      8.437195    6.216728    3.500000    ( 0.0000,  0.0000,  0.0000)
   9 H      6.849139    8.170360    3.500000    ( 0.0000,  0.0000,  0.0000)
  10 H      5.052851    3.466775    3.500000    ( 0.0000,  0.0000,  0.0000)
  11 H      7.538522    3.864151    3.500000    ( 0.0000,  0.0000,  0.0000)

Unit cell:
           periodic     x           y           z      points  spacing
  1. axis:    no    11.901000    0.000000    0.000000    48     0.2479
  2. axis:    no     0.000000   11.637000    0.000000    48     0.2424
  3. axis:    no     0.000000    0.000000    7.000000    28     0.2500

  Lengths:  11.901000  11.637000   7.000000
  Angles:   90.000000  90.000000  90.000000

Effective grid spacing dv^(1/3) = 0.2468

                     log10-error:    total        iterations:
           time      wfs    density  energy       fermi  poisson
iter:   1  01:09:59  -2.11          -71.635225    0             
iter:   2  01:09:59  -3.47  -2.15   -71.634032    0             
iter:   3  01:09:59  -2.83  -2.15   -71.626595    0             
iter:   4  01:10:00  -3.63  -2.54   -71.628507    0             
iter:   5  01:10:00  -3.45  -2.43   -71.625662    0             
iter:   6  01:10:00  -4.80  -2.84   -71.625606    0             
iter:   7  01:10:00  -5.96  -3.29   -71.625610    0             
iter:   8  01:10:01  -5.65  -3.26   -71.625584    0             
iter:   9  01:10:01  -6.21  -3.57   -71.625577    0             
iter:  10  01:10:01  -7.12  -3.82   -71.625576    0             
iter:  11  01:10:02  -7.10  -3.88   -71.625579    0             
iter:  12  01:10:02  -5.88  -3.74   -71.625577    0             
iter:  13  01:10:02  -6.90  -4.00   -71.625575    0             
iter:  14  01:10:02  -7.57  -4.56   -71.625575    0             

Converged after 14 iterations.

Dipole moment: (0.000014, -0.000253, 0.000000) |e|*Ang

Energy contributions relative to reference atoms: (reference = -6240.709666)

Kinetic:        +44.074518
Potential:      -51.695114
External:        +0.000000
XC:             -64.289683
Entropy (-ST):   +0.000000
Local:           +0.284704
--------------------------
Free energy:    -71.625575
Extrapolated:   -71.625575

Fermi level: -3.05081

 Band  Eigenvalues  Occupancy
    0    -20.47054    2.00000
    1    -17.75881    2.00000
    2    -17.75036    2.00000
    3    -14.10556    2.00000
    4    -14.10085    2.00000
    5    -12.00561    2.00000
    6    -10.49210    2.00000
    7    -10.10938    2.00000
    8     -9.42628    2.00000
    9     -9.41693    2.00000
   10     -8.21648    2.00000
   11     -7.51509    2.00000
   12     -7.50736    2.00000
   13     -5.55597    2.00000
   14     -5.54506    2.00000
   15     -0.55656    0.00000
   16     -0.54773    0.00000
   17     -0.27444    0.00000
   18      0.72450    0.00000
   19      0.77827    0.00000
   20      0.78112    0.00000
   21      1.15609    0.00000

Gap: 4.988 eV
Transition (v -> c):
  (s=0, k=0, n=14, [0.00, 0.00, 0.00]) -> (s=0, k=0, n=15, [0.00, 0.00, 0.00])

Forces in eV/Ang:
  0 C     0.07753   -0.05327    0.00000
  1 C     0.07666   -0.01123    0.00000
  2 C     0.12398    0.15446    0.00000
  3 C    -0.14112    0.06663    0.00000
  4 C    -0.08349   -0.02840    0.00000
  5 C    -0.05537   -0.07099    0.00000
  6 H    -0.02029    0.02899    0.00000
  7 H    -0.04371   -0.00395    0.00000
  8 H     0.04960    0.00764    0.00000
  9 H     0.01342    0.02403    0.00000
 10 H    -0.03398   -0.07006    0.00000
 11 H     0.03786   -0.04567    0.00000

System changes: positions 

Initializing position-dependent things.

Density initialized from wave functions
        .----------------------------.  
       /|                            |  
      / |                            |  
     /  |                            |  
    /   |                            |  
   /    |                            |  
  /     |                            |  
 *      |       HC   C H             |  
 |      |    H C       C H           |  
 |      .------H-C---CH--------------.  
 |     /                            /   
 |    /                            /    
 |   /                            /     
 |  /                            /      
 | /                            /       
 |/                            /        
 *----------------------------*         

Positions:
   0 C      5.060560    6.913770    3.500000    ( 0.0000,  0.0000,  0.0000)
   1 C      4.556730    5.595005    3.500000    ( 0.0000,  0.0000,  0.0000)
   2 C      5.447618    4.500175    3.500000    ( 0.0000,  0.0000,  0.0000)
   3 C      6.840878    4.722961    3.500000    ( 0.0000,  0.0000,  0.0000)
   4 C      7.345060    6.041409    3.500000    ( 0.0000,  0.0000,  0.0000)
   5 C      6.454170    7.136545    3.500000    ( 0.0000,  0.0000,  0.0000)
   6 H      4.362750    7.772877    3.500000    ( 0.0000,  0.0000,  0.0000)
   7 H      3.463898    5.420196    3.500000    ( 0.0000,  0.0000,  0.0000)
   8 H      8.437702    6.216800    3.500000    ( 0.0000,  0.0000,  0.0000)
   9 H      6.849276    8.170563    3.500000    ( 0.0000,  0.0000,  0.0000)
  10 H      5.052462    3.466011    3.500000    ( 0.0000,  0.0000,  0.0000)
  11 H      7.538925    3.863660    3.500000    ( 0.0000,  0.0000,  0.0000)

Unit cell:
           periodic     x           y           z      points  spacing
  1. axis:    no    11.901000    0.000000    0.000000    48     0.2479
  2. axis:    no     0.000000   11.637000    0.000000    48     0.2424
  3. axis:    no     0.000000    0.000000    7.000000    28     0.2500

  Lengths:  11.901000  11.637000   7.000000
  Angles:   90.000000  90.000000  90.000000

Effective grid spacing dv^(1/3) = 0.2468

                     log10-error:    total        iterations:
           time      wfs    density  energy       fermi  poisson
iter:   1  01:10:03  -3.84          -71.626747    0             
iter:   2  01:10:03  -5.41  -2.84   -71.626632    0             
iter:   3  01:10:03  -3.73  -2.86   -71.626514    0             
iter:   4  01:10:04  -4.96  -2.94   -71.626176    0             
iter:   5  01:10:04  -5.73  -3.31   -71.626245    0             
iter:   6  01:10:04  -5.19  -3.15   -71.626147    0             
iter:   7  01:10:05  -6.39  -3.80   -71.626146    0             
iter:   8  01:10:05  -6.85  -3.94   -71.626146    0             
iter:   9  01:10:05  -6.47  -4.10   -71.626147    0             
iter:  10  01:10:05  -8.04  -4.08   -71.626146    0             

Converged after 10 iterations.

Dipole moment: (-0.000026, 0.000085, 0.000000) |e|*Ang

Energy contributions relative to reference atoms: (reference = -6240.709666)

Kinetic:        +44.263544
Potential:      -51.863052
External:        +0.000000
XC:             -64.313444
Entropy (-ST):   +0.000000
Local:           +0.286806
--------------------------
Free energy:    -71.626146
Extrapolated:   -71.626146

Fermi level: -3.05065

 Band  Eigenvalues  Occupancy
    0    -20.48688    2.00000
    1    -17.75946    2.00000
    2    -17.75843    2.00000
    3    -14.10266    2.00000
    4    -14.09634    2.00000
    5    -12.00507    2.00000
    6    -10.47024    2.00000
    7    -10.11815    2.00000
    8     -9.42109    2.00000
    9     -9.41459    2.00000
   10     -8.22814    2.00000
   11     -7.51043    2.00000
   12     -7.49853    2.00000
   13     -5.55566    2.00000
   14     -5.55363    2.00000
   15     -0.54766    0.00000
   16     -0.54096    0.00000
   17     -0.27730    0.00000
   18      0.72322    0.00000
   19      0.77633    0.00000
   20      0.78113    0.00000
   21      1.15556    0.00000

Gap: 5.006 eV
Transition (v -> c):
  (s=0, k=0, n=14, [0.00, 0.00, 0.00]) -> (s=0, k=0, n=15, [0.00, 0.00, 0.00])

Forces in eV/Ang:
  0 C    -0.02177   -0.00932    0.00000
  1 C    -0.00139    0.01701    0.00000
  2 C    -0.03770   -0.01980    0.00000
  3 C     0.04685   -0.00377    0.00000
  4 C    -0.00830    0.00331    0.00000
  5 C     0.02323    0.00456    0.00000
  6 H     0.00672   -0.00264    0.00000
  7 H     0.00305   -0.00066    0.00000
  8 H     0.00026   -0.00279    0.00000
  9 H    -0.00281   -0.01493    0.00000
 10 H     0.00488    0.01921    0.00000
 11 H    -0.01298    0.00888    0.00000

System changes: positions 

Initializing position-dependent things.

Density initialized from wave functions
        .----------------------------.  
       /|                            |  
      / |                            |  
     /  |                            |  
    /   |                            |  
   /    |                            |  
  /     |                            |  
 *      |       HC   C H             |  
 |      |    H C       C H           |  
 |      .------H-C---CH--------------.  
 |     /                            /   
 |    /                            /    
 |   /                            /     
 |  /                            /      
 | /                            /       
 |/                            /        
 *----------------------------*         

Positions:
   0 C      5.060381    6.913568    3.500000    ( 0.0000,  0.0000,  0.0000)
   1 C      4.556819    5.595214    3.500000    ( 0.0000,  0.0000,  0.0000)
   2 C      5.447247    4.500079    3.500000    ( 0.0000,  0.0000,  0.0000)
   3 C      6.841332    4.723002    3.500000    ( 0.0000,  0.0000,  0.0000)
   4 C      7.344841    6.041426    3.500000    ( 0.0000,  0.0000,  0.0000)
   5 C      6.454406    7.136505    3.500000    ( 0.0000,  0.0000,  0.0000)
   6 H      4.362901    7.772760    3.500000    ( 0.0000,  0.0000,  0.0000)
   7 H      3.464049    5.420209    3.500000    ( 0.0000,  0.0000,  0.0000)
   8 H      8.437597    6.216750    3.500000    ( 0.0000,  0.0000,  0.0000)
   9 H      6.849199    8.170271    3.500000    ( 0.0000,  0.0000,  0.0000)
  10 H      5.052553    3.466329    3.500000    ( 0.0000,  0.0000,  0.0000)
  11 H      7.538704    3.863848    3.500000    ( 0.0000,  0.0000,  0.0000)

Unit cell:
           periodic     x           y           z      points  spacing
  1. axis:    no    11.901000    0.000000    0.000000    48     0.2479
  2. axis:    no     0.000000   11.637000    0.000000    48     0.2424
  3. axis:    no     0.000000    0.000000    7.000000    28     0.2500

  Lengths:  11.901000  11.637000   7.000000
  Angles:   90.000000  90.000000  90.000000

Effective grid spacing dv^(1/3) = 0.2468

                     log10-error:    total        iterations:
           time      wfs    density  energy       fermi  poisson
iter:   1  01:10:06  -5.20          -71.626188    0             
iter:   2  01:10:06  -6.66  -3.57   -71.626185    0             
iter:   3  01:10:07  -5.48  -3.59   -71.626176    0             
iter:   4  01:10:07  -6.90  -3.90   -71.626172    0             
iter:   5  01:10:07  -7.50  -4.14   -71.626171    0             

Converged after 5 iterations.

Dipole moment: (-0.000036, 0.000238, 0.000000) |e|*Ang

Energy contributions relative to reference atoms: (reference = -6240.709666)

Kinetic:        +44.274571
Potential:      -51.868975
External:        +0.000000
XC:             -64.320962
Entropy (-ST):   +0.000000
Local:           +0.289195
--------------------------
Free energy:    -71.626171
Extrapolated:   -71.626171

Fermi level: -3.05002

 Band  Eigenvalues  Occupancy
    0    -20.48806    2.00000
    1    -17.76250    2.00000
    2    -17.75840    2.00000
    3    -14.10228    2.00000
    4    -14.10025    2.00000
    5    -12.00689    2.00000
    6    -10.47261    2.00000
    7    -10.11921    2.00000
    8     -9.42347    2.00000
    9     -9.41541    2.00000
   10     -8.22900    2.00000
   11     -7.50779    2.00000
   12     -7.50405    2.00000
   13     -5.55880    2.00000
   14     -5.55242    2.00000
   15     -0.54762    0.00000
   16     -0.54317    0.00000
   17     -0.27702    0.00000
   18      0.72320    0.00000
   19      0.77670    0.00000
   20      0.78128    0.00000
   21      1.15544    0.00000

Gap: 5.005 eV
Transition (v -> c):
  (s=0, k=0, n=14, [0.00, 0.00, 0.00]) -> (s=0, k=0, n=15, [0.00, 0.00, 0.00])

Forces in eV/Ang:
  0 C     0.00093    0.00650    0.00000
  1 C    -0.01000   -0.00103    0.00000
  2 C     0.00212   -0.00296    0.00000
  3 C    -0.00048   -0.00644    0.00000
  4 C     0.01078    0.00115    0.00000
  5 C    -0.00282    0.00089    0.00000
  6 H     0.00288    0.00084    0.00000
  7 H     0.00058    0.00017    0.00000
  8 H    -0.00143   -0.00238    0.00000
  9 H     0.00175   -0.00501    0.00000
 10 H    -0.00236    0.00410    0.00000
 11 H    -0.00114   -0.00301    0.00000

System changes: positions 

Initializing position-dependent things.

Density initialized from wave functions
        .----------------------------.  
       /|                            |  
      / |                            |  
     /  |                            |  
    /   |                            |  
   /    |                            |  
  /     |                            |  
 *      |       HC   C H             |  
 |      |    H C       C H           |  
 |      .------H-C---CH--------------.  
 |     /                            /   
 |    /                            /    
 |   /                            /     
 |  /                            /      
 | /                            /       
 |/                            /        
 *----------------------------*         

Positions:
   0 C      5.060372    6.913658    3.500000    ( 0.0000,  0.0000,  0.0000)
   1 C      4.556668    5.595208    3.500000    ( 0.0000,  0.0000,  0.0000)
   2 C      5.447248    4.500015    3.500000    ( 0.0000,  0.0000,  0.0000)
   3 C      6.841363    4.722902    3.500000    ( 0.0000,  0.0000,  0.0000)
   4 C      7.344994    6.041446    3.500000    ( 0.0000,  0.0000,  0.0000)
   5 C      6.454390    7.136534    3.500000    ( 0.0000,  0.0000,  0.0000)
   6 H      4.362921    7.772797    3.500000    ( 0.0000,  0.0000,  0.0000)
   7 H      3.464027    5.420205    3.500000    ( 0.0000,  0.0000,  0.0000)
   8 H      8.437611    6.216722    3.500000    ( 0.0000,  0.0000,  0.0000)
   9 H      6.849233    8.170225    3.500000    ( 0.0000,  0.0000,  0.0000)
  10 H      5.052511    3.466365    3.500000    ( 0.0000,  0.0000,  0.0000)
  11 H      7.538702    3.863786    3.500000    ( 0.0000,  0.0000,  0.0000)

Unit cell:
           periodic     x           y           z      points  spacing
  1. axis:    no    11.901000    0.000000    0.000000    48     0.2479
  2. axis:    no     0.000000   11.637000    0.000000    48     0.2424
  3. axis:    no     0.000000    0.000000    7.000000    28     0.2500

  Lengths:  11.901000  11.637000   7.000000
  Angles:   90.000000  90.000000  90.000000

Effective grid spacing dv^(1/3) = 0.2468

                     log10-error:    total        iterations:
           time      wfs    density  energy       fermi  poisson
iter:   1  01:10:08  -6.12          -71.626177    0             
iter:   2  01:10:08  -7.74  -3.99   -71.626177    0             
iter:   3  01:10:08  -6.43  -4.01   -71.626175    0             
iter:   4  01:10:09  -7.48  -4.43   -71.626174    0             

Converged after 4 iterations.

Dipole moment: (-0.000017, -0.000007, 0.000000) |e|*Ang

Energy contributions relative to reference atoms: (reference = -6240.709666)

Kinetic:        +44.268030
Potential:      -51.860454
External:        +0.000000
XC:             -64.317783
Entropy (-ST):   +0.000000
Local:           +0.284032
--------------------------
Free energy:    -71.626174
Extrapolated:   -71.626174

Fermi level: -3.05075

 Band  Eigenvalues  Occupancy
    0    -20.48760    2.00000
    1    -17.76242    2.00000
    2    -17.75872    2.00000
    3    -14.10275    2.00000
    4    -14.10068    2.00000
    5    -12.00710    2.00000
    6    -10.47391    2.00000
    7    -10.11910    2.00000
    8     -9.42379    2.00000
    9     -9.41609    2.00000
   10     -8.22880    2.00000
   11     -7.50887    2.00000
   12     -7.50431    2.00000
   13     -5.55870    2.00000
   14     -5.55301    2.00000
   15     -0.54849    0.00000
   16     -0.54417    0.00000
   17     -0.27692    0.00000
   18      0.72330    0.00000
   19      0.77665    0.00000
   20      0.78127    0.00000
   21      1.15534    0.00000

Gap: 5.005 eV
Transition (v -> c):
  (s=0, k=0, n=14, [0.00, 0.00, 0.00]) -> (s=0, k=0, n=15, [0.00, 0.00, 0.00])

Forces in eV/Ang:
  0 C     0.00597    0.00717    0.00000
  1 C    -0.00476   -0.00322    0.00000
  2 C     0.00983    0.00556    0.00000
  3 C    -0.01141   -0.00259    0.00000
  4 C     0.00687   -0.00073    0.00000
  5 C    -0.00676   -0.00035    0.00000
  6 H     0.00165    0.00317    0.00000
  7 H    -0.00399   -0.00029    0.00000
  8 H     0.00371   -0.00117    0.00000
  9 H     0.00211   -0.00291    0.00000
 10 H    -0.00348    0.00085    0.00000
 11 H     0.00035   -0.00499    0.00000

System changes: positions 

Initializing position-dependent things.

Density initialized from wave functions
        .----------------------------.  
       /|                            |  
      / |                            |  
     /  |                            |  
    /   |                            |  
   /    |                            |  
  /     |                            |  
 *      |       HC   C H             |  
 |      |    H C       C H           |  
 |      .------H-C---CH--------------.  
 |     /                            /   
 |    /                            /    
 |   /                            /     
 |  /                            /      
 | /                            /       
 |/                            /        
 *----------------------------*         

Positions:
   0 C      5.060426    6.914246    3.500000    ( 0.0000,  0.0000,  0.0000)
   1 C      4.555898    5.595113    3.500000    ( 0.0000,  0.0000,  0.0000)
   2 C      5.447432    4.499834    3.500000    ( 0.0000,  0.0000,  0.0000)
   3 C      6.841281    4.722394    3.500000    ( 0.0000,  0.0000,  0.0000)
   4 C      7.345820    6.041515    3.500000    ( 0.0000,  0.0000,  0.0000)
   5 C      6.454200    7.136705    3.500000    ( 0.0000,  0.0000,  0.0000)
   6 H      4.362987    7.773119    3.500000    ( 0.0000,  0.0000,  0.0000)
   7 H      3.463710    5.420164    3.500000    ( 0.0000,  0.0000,  0.0000)
   8 H      8.437899    6.216595    3.500000    ( 0.0000,  0.0000,  0.0000)
   9 H      6.849458    8.170044    3.500000    ( 0.0000,  0.0000,  0.0000)
  10 H      5.052225    3.466460    3.500000    ( 0.0000,  0.0000,  0.0000)
  11 H      7.538747    3.863341    3.500000    ( 0.0000,  0.0000,  0.0000)

Unit cell:
           periodic     x           y           z      points  spacing
  1. axis:    no    11.901000    0.000000    0.000000    48     0.2479
  2. axis:    no     0.000000   11.637000    0.000000    48     0.2424
  3. axis:    no     0.000000    0.000000    7.000000    28     0.2500

  Lengths:  11.901000  11.637000   7.000000
  Angles:   90.000000  90.000000  90.000000

Effective grid spacing dv^(1/3) = 0.2468

                     log10-error:    total        iterations:
           time      wfs    density  energy       fermi  poisson
iter:   1  01:10:09  -4.89          -71.626143    0             
iter:   2  01:10:09  -6.30  -3.43   -71.626137    0             
iter:   3  01:10:10  -4.99  -3.45   -71.626128    0             
iter:   4  01:10:10  -6.26  -3.58   -71.626111    0             
iter:   5  01:10:10  -6.79  -3.91   -71.626116    0             
iter:   6  01:10:10  -6.21  -3.74   -71.626109    0             
iter:   7  01:10:11  -7.46  -4.48   -71.626109    0             

Converged after 7 iterations.

Dipole moment: (-0.000024, 0.000010, 0.000000) |e|*Ang

Energy contributions relative to reference atoms: (reference = -6240.709666)

Kinetic:        +44.148565
Potential:      -51.764767
External:        +0.000000
XC:             -64.292544
Entropy (-ST):   +0.000000
Local:           +0.282637
--------------------------
Free energy:    -71.626109
Extrapolated:   -71.626109

Fermi level: -3.05309

 Band  Eigenvalues  Occupancy
    0    -20.48164    2.00000
    1    -17.75897    2.00000
    2    -17.75709    2.00000
    3    -14.10547    2.00000
    4    -14.09724    2.00000
    5    -12.00540    2.00000
    6    -10.47828    2.00000
    7    -10.11600    2.00000
    8     -9.42340    2.00000
    9     -9.41592    2.00000
   10     -8.22466    2.00000
   11     -7.51595    2.00000
   12     -7.49935    2.00000
   13     -5.55437    2.00000
   14     -5.55369    2.00000
   15     -0.55248    0.00000
   16     -0.54393    0.00000
   17     -0.27646    0.00000
   18      0.72366    0.00000
   19      0.77668    0.00000
   20      0.78107    0.00000
   21      1.15562    0.00000

Gap: 5.001 eV
Transition (v -> c):
  (s=0, k=0, n=14, [0.00, 0.00, 0.00]) -> (s=0, k=0, n=15, [0.00, 0.00, 0.00])

Forces in eV/Ang:
  0 C    -0.01708   -0.04512    0.00000
  1 C     0.05638    0.01819    0.00000
  2 C    -0.02577    0.03021    0.00000
  3 C     0.01743    0.03917    0.00000
  4 C    -0.05940   -0.01940    0.00000
  5 C     0.02871   -0.02801    0.00000
  6 H    -0.00145    0.00904    0.00000
  7 H    -0.01631   -0.00227    0.00000
  8 H     0.01893    0.00196    0.00000
  9 H     0.00263    0.00367    0.00000
 10 H    -0.00267   -0.00312    0.00000
 11 H    -0.00114   -0.00525    0.00000

System changes: positions 

Initializing position-dependent things.

Density initialized from wave functions
        .----------------------------.  
       /|                            |  
      / |                            |  
     /  |                            |  
    /   |                            |  
   /    |                            |  
  /     |                            |  
 *      |       HC   C H             |  
 |      |    H C       C H           |  
 |      .------H-C---CH--------------.  
 |     /                            /   
 |    /                            /    
 |   /                            /     
 |  /                            /      
 | /                            /       
 |/                            /        
 *----------------------------*         

Positions:
   0 C      5.060376    6.913764    3.500000    ( 0.0000,  0.0000,  0.0000)
   1 C      4.556533    5.595208    3.500000    ( 0.0000,  0.0000,  0.0000)
   2 C      5.447285    4.500041    3.500000    ( 0.0000,  0.0000,  0.0000)
   3 C      6.841336    4.722820    3.500000    ( 0.0000,  0.0000,  0.0000)
   4 C      7.345150    6.041424    3.500000    ( 0.0000,  0.0000,  0.0000)
   5 C      6.454363    7.136515    3.500000    ( 0.0000,  0.0000,  0.0000)
   6 H      4.362961    7.772904    3.500000    ( 0.0000,  0.0000,  0.0000)
   7 H      3.463910    5.420191    3.500000    ( 0.0000,  0.0000,  0.0000)
   8 H      8.437720    6.216676    3.500000    ( 0.0000,  0.0000,  0.0000)
   9 H      6.849308    8.170145    3.500000    ( 0.0000,  0.0000,  0.0000)
  10 H      5.052413    3.466413    3.500000    ( 0.0000,  0.0000,  0.0000)
  11 H      7.538701    3.863638    3.500000    ( 0.0000,  0.0000,  0.0000)

Unit cell:
           periodic     x           y           z      points  spacing
  1. axis:    no    11.901000    0.000000    0.000000    48     0.2479
  2. axis:    no     0.000000   11.637000    0.000000    48     0.2424
  3. axis:    no     0.000000    0.000000    7.000000    28     0.2500

  Lengths:  11.901000  11.637000   7.000000
  Angles:   90.000000  90.000000  90.000000

Effective grid spacing dv^(1/3) = 0.2468

                     log10-error:    total        iterations:
           time      wfs    density  energy       fermi  poisson
iter:   1  01:10:11  -5.03          -71.626204    0             
iter:   2  01:10:12  -6.48  -3.49   -71.626199    0             
iter:   3  01:10:12  -5.08  -3.50   -71.626193    0             
iter:   4  01:10:12  -6.30  -3.62   -71.626178    0             
iter:   5  01:10:12  -6.85  -3.97   -71.626182    0             
iter:   6  01:10:13  -6.33  -3.79   -71.626177    0             
iter:   7  01:10:13  -7.60  -4.52   -71.626177    0             

Converged after 7 iterations.

Dipole moment: (-0.000016, -0.000005, 0.000000) |e|*Ang

Energy contributions relative to reference atoms: (reference = -6240.709666)

Kinetic:        +44.229502
Potential:      -51.832896
External:        +0.000000
XC:             -64.311381
Entropy (-ST):   +0.000000
Local:           +0.288598
--------------------------
Free energy:    -71.626177
Extrapolated:   -71.626177

Fermi level: -3.05069

 Band  Eigenvalues  Occupancy
    0    -20.48655    2.00000
    1    -17.76151    2.00000
    2    -17.75847    2.00000
    3    -14.10299    2.00000
    4    -14.09987    2.00000
    5    -12.00660    2.00000
    6    -10.47423    2.00000
    7    -10.11852    2.00000
    8     -9.42369    2.00000
    9     -9.41567    2.00000
   10     -8.22794    2.00000
   11     -7.50993    2.00000
   12     -7.50318    2.00000
   13     -5.55778    2.00000
   14     -5.55288    2.00000
   15     -0.54850    0.00000
   16     -0.54420    0.00000
   17     -0.27688    0.00000
   18      0.72332    0.00000
   19      0.77665    0.00000
   20      0.78122    0.00000
   21      1.15548    0.00000

Gap: 5.004 eV
Transition (v -> c):
  (s=0, k=0, n=14, [0.00, 0.00, 0.00]) -> (s=0, k=0, n=15, [0.00, 0.00, 0.00])

Forces in eV/Ang:
  0 C    -0.00075   -0.00224    0.00000
  1 C     0.00437    0.00125    0.00000
  2 C    -0.00025    0.00681    0.00000
  3 C    -0.00086    0.00285    0.00000
  4 C    -0.00430   -0.00349    0.00000
  5 C     0.00181   -0.00414    0.00000
  6 H     0.00158    0.00336    0.00000
  7 H    -0.00332   -0.00033    0.00000
  8 H     0.00392   -0.00055    0.00000
  9 H     0.00144   -0.00148    0.00000
 10 H    -0.00200    0.00109    0.00000
 11 H    -0.00139   -0.00299    0.00000

System changes: positions 

Initializing position-dependent things.

Density initialized from wave functions
        .----------------------------.  
       /|                            |  
      / |                            |  
     /  |                            |  
    /   |                            |  
   /    |                            |  
  /     |                            |  
 *      |       HC   C H             |  
 |      |    H C       C H           |  
 |      .------H-C---CH--------------.  
 |     /                            /   
 |    /                            /    
 |   /                            /     
 |  /                            /      
 | /                            /       
 |/                            /        
 *----------------------------*         

Positions:
   0 C      5.050376    6.913764    3.500000    ( 0.0000,  0.0000,  0.0000)
   1 C      4.556533    5.595208    3.500000    ( 0.0000,  0.0000,  0.0000)
   2 C      5.447285    4.500041    3.500000    ( 0.0000,  0.0000,  0.0000)
   3 C      6.841336    4.722820    3.500000    ( 0.0000,  0.0000,  0.0000)
   4 C      7.345150    6.041424    3.500000    ( 0.0000,  0.0000,  0.0000)
   5 C      6.454363    7.136515    3.500000    ( 0.0000,  0.0000,  0.0000)
   6 H      4.362961    7.772904    3.500000    ( 0.0000,  0.0000,  0.0000)
   7 H      3.463910    5.420191    3.500000    ( 0.0000,  0.0000,  0.0000)
   8 H      8.437720    6.216676    3.500000    ( 0.0000,  0.0000,  0.0000)
   9 H      6.849308    8.170145    3.500000    ( 0.0000,  0.0000,  0.0000)
  10 H      5.052413    3.466413    3.500000    ( 0.0000,  0.0000,  0.0000)
  11 H      7.538701    3.863638    3.500000    ( 0.0000,  0.0000,  0.0000)

Unit cell:
           periodic     x           y           z      points  spacing
  1. axis:    no    11.901000    0.000000    0.000000    48     0.2479
  2. axis:    no     0.000000   11.637000    0.000000    48     0.2424
  3. axis:    no     0.000000    0.000000    7.000000    28     0.2500

  Lengths:  11.901000  11.637000   7.000000
  Angles:   90.000000  90.000000  90.000000

Effective grid spacing dv^(1/3) = 0.2468

                     log10-error:    total        iterations:
           time      wfs    density  energy       fermi  poisson
iter:   1  01:10:14  -3.30          -71.624572    0             
iter:   2  01:10:14  -4.90  -2.70   -71.624205    0             
iter:   3  01:10:14  -3.81  -2.74   -71.623149    0             
iter:   4  01:10:14  -5.22  -3.06   -71.623064    0             
iter:   5  01:10:15  -5.18  -3.15   -71.622987    0             
iter:   6  01:10:15  -5.32  -3.43   -71.622982    0             
iter:   7  01:10:15  -5.77  -3.52   -71.622969    0             
iter:   8  01:10:16  -6.54  -3.74   -71.622968    0             
iter:   9  01:10:16  -6.52  -4.00   -71.622969    0             
iter:  10  01:10:16  -6.55  -3.94   -71.622968    0             
iter:  11  01:10:16  -8.10  -4.60   -71.622968    0             

Converged after 11 iterations.

Dipole moment: (0.000111, 0.000717, 0.000000) |e|*Ang

Energy contributions relative to reference atoms: (reference = -6240.709666)

Kinetic:        +44.046020
Potential:      -51.678410
External:        +0.000000
XC:             -64.276351
Entropy (-ST):   +0.000000
Local:           +0.285773
--------------------------
Free energy:    -71.622968
Extrapolated:   -71.622968

Fermi level: -3.05184

 Band  Eigenvalues  Occupancy
    0    -20.47378    2.00000
    1    -17.77539    2.00000
    2    -17.73587    2.00000
    3    -14.11736    2.00000
    4    -14.08769    2.00000
    5    -12.00509    2.00000
    6    -10.48826    2.00000
    7    -10.11163    2.00000
    8     -9.44010    2.00000
    9     -9.40170    2.00000
   10     -8.21901    2.00000
   11     -7.53415    2.00000
   12     -7.48579    2.00000
   13     -5.57053    2.00000
   14     -5.53318    2.00000
   15     -0.57051    0.00000
   16     -0.53282    0.00000
   17     -0.27524    0.00000
   18      0.72347    0.00000
   19      0.77868    0.00000
   20      0.78056    0.00000
   21      1.15598    0.00000

Gap: 4.963 eV
Transition (v -> c):
  (s=0, k=0, n=14, [0.00, 0.00, 0.00]) -> (s=0, k=0, n=15, [0.00, 0.00, 0.00])

Forces in eV/Ang:
  0 C     0.63941   -0.01472    0.00000
  1 C    -0.13311   -0.04795    0.00000
  2 C     0.05117    0.00513    0.00000
  3 C    -0.03498   -0.02409    0.00000
  4 C    -0.04504    0.05134    0.00000
  5 C    -0.32181   -0.06594    0.00000
  6 H    -0.14334    0.12230    0.00000
  7 H    -0.01179   -0.02758    0.00000
  8 H     0.00367    0.00257    0.00000
  9 H    -0.00397   -0.00069    0.00000
 10 H    -0.00405    0.00541    0.00000
 11 H    -0.00168   -0.00415    0.00000

System changes: positions 

Initializing position-dependent things.

Density initialized from wave functions
        .----------------------------.  
       /|                            |  
      / |                            |  
     /  |                            |  
    /   |                            |  
   /    |                            |  
  /     |                            |  
 *      |       H C  C H             |  
 |      |    H C       C H           |  
 |      .------H-C---CH--------------.  
 |     /                            /   
 |    /                            /    
 |   /                            /     
 |  /                            /      
 | /                            /       
 |/                            /        
 *----------------------------*         

Positions:
   0 C      5.070376    6.913764    3.500000    ( 0.0000,  0.0000,  0.0000)
   1 C      4.556533    5.595208    3.500000    ( 0.0000,  0.0000,  0.0000)
   2 C      5.447285    4.500041    3.500000    ( 0.0000,  0.0000,  0.0000)
   3 C      6.841336    4.722820    3.500000    ( 0.0000,  0.0000,  0.0000)
   4 C      7.345150    6.041424    3.500000    ( 0.0000,  0.0000,  0.0000)
   5 C      6.454363    7.136515    3.500000    ( 0.0000,  0.0000,  0.0000)
   6 H      4.362961    7.772904    3.500000    ( 0.0000,  0.0000,  0.0000)
   7 H      3.463910    5.420191    3.500000    ( 0.0000,  0.0000,  0.0000)
   8 H      8.437720    6.216676    3.500000    ( 0.0000,  0.0000,  0.0000)
   9 H      6.849308    8.170145    3.500000    ( 0.0000,  0.0000,  0.0000)
  10 H      5.052413    3.466413    3.500000    ( 0.0000,  0.0000,  0.0000)
  11 H      7.538701    3.863638    3.500000    ( 0.0000,  0.0000,  0.0000)

Unit cell:
           periodic     x           y           z      points  spacing
  1. axis:    no    11.901000    0.000000    0.000000    48     0.2479
  2. axis:    no     0.000000   11.637000    0.000000    48     0.2424
  3. axis:    no     0.000000    0.000000    7.000000    28     0.2500

  Lengths:  11.901000  11.637000   7.000000
  Angles:   90.000000  90.000000  90.000000

Effective grid spacing dv^(1/3) = 0.2468

                     log10-error:    total        iterations:
           time      wfs    density  energy       fermi  poisson
iter:   1  01:10:17  -2.71          -71.629308    0             
iter:   2  01:10:17  -4.31  -2.39   -71.627848    0             
iter:   3  01:10:17  -3.21  -2.43   -71.623604    0             
iter:   4  01:10:18  -4.65  -2.77   -71.623295    0             
iter:   5  01:10:18  -4.59  -2.85   -71.623001    0             
iter:   6  01:10:18  -4.69  -3.12   -71.622974    0             
iter:   7  01:10:19  -5.21  -3.21   -71.622923    0             
iter:   8  01:10:19  -5.91  -3.44   -71.622916    0             
iter:   9  01:10:19  -5.98  -3.70   -71.622922    0             
iter:  10  01:10:19  -6.02  -3.66   -71.622918    0             
iter:  11  01:10:20  -7.49  -4.32   -71.622917    0             

Converged after 11 iterations.

Dipole moment: (-0.000114, -0.000664, 0.000000) |e|*Ang

Energy contributions relative to reference atoms: (reference = -6240.709666)

Kinetic:        +44.453396
Potential:      -52.011878
External:        +0.000000
XC:             -64.350495
Entropy (-ST):   +0.000000
Local:           +0.286060
--------------------------
Free energy:    -71.622917
Extrapolated:   -71.622917

Fermi level: -3.05271

 Band  Eigenvalues  Occupancy
    0    -20.49932    2.00000
    1    -17.78137    2.00000
    2    -17.74723    2.00000
    3    -14.11714    2.00000
    4    -14.08333    2.00000
    5    -12.00815    2.00000
    6    -10.46129    2.00000
    7    -10.12548    2.00000
    8     -9.43165    2.00000
    9     -9.40411    2.00000
   10     -8.23702    2.00000
   11     -7.53297    2.00000
   12     -7.47097    2.00000
   13     -5.57310    2.00000
   14     -5.54444    2.00000
   15     -0.56099    0.00000
   16     -0.52065    0.00000
   17     -0.27861    0.00000
   18      0.72317    0.00000
   19      0.77442    0.00000
   20      0.78182    0.00000
   21      1.15495    0.00000

Gap: 4.983 eV
Transition (v -> c):
  (s=0, k=0, n=14, [0.00, 0.00, 0.00]) -> (s=0, k=0, n=15, [0.00, 0.00, 0.00])

Forces in eV/Ang:
  0 C    -0.65664   -0.00277    0.00000
  1 C     0.14787    0.04990    0.00000
  2 C    -0.05261    0.01436    0.00000
  3 C     0.03146    0.03518    0.00000
  4 C     0.03327   -0.06180    0.00000
  5 C     0.34359    0.05686    0.00000
  6 H     0.14398   -0.11052    0.00000
  7 H     0.00407    0.02678    0.00000
  8 H     0.00520   -0.00431    0.00000
  9 H     0.00815   -0.00300    0.00000
 10 H    -0.00107   -0.00294    0.00000
 11 H    -0.00040   -0.00198    0.00000

System changes: positions 

Initializing position-dependent things.

Density initialized from wave functions
        .----------------------------.  
       /|                            |  
      / |                            |  
     /  |                            |  
    /   |                            |  
   /    |                            |  
  /     |                            |  
 *      |       HC   C H             |  
 |      |    H C       C H           |  
 |      .------H-C---CH--------------.  
 |     /                            /   
 |    /                            /    
 |   /                            /     
 |  /                            /      
 | /                            /       
 |/                            /        
 *----------------------------*         

Positions:
   0 C      5.060376    6.903764    3.500000    ( 0.0000,  0.0000,  0.0000)
   1 C      4.556533    5.595208    3.500000    ( 0.0000,  0.0000,  0.0000)
   2 C      5.447285    4.500041    3.500000    ( 0.0000,  0.0000,  0.0000)
   3 C      6.841336    4.722820    3.500000    ( 0.0000,  0.0000,  0.0000)
   4 C      7.345150    6.041424    3.500000    ( 0.0000,  0.0000,  0.0000)
   5 C      6.454363    7.136515    3.500000    ( 0.0000,  0.0000,  0.0000)
   6 H      4.362961    7.772904    3.500000    ( 0.0000,  0.0000,  0.0000)
   7 H      3.463910    5.420191    3.500000    ( 0.0000,  0.0000,  0.0000)
   8 H      8.437720    6.216676    3.500000    ( 0.0000,  0.0000,  0.0000)
   9 H      6.849308    8.170145    3.500000    ( 0.0000,  0.0000,  0.0000)
  10 H      5.052413    3.466413    3.500000    ( 0.0000,  0.0000,  0.0000)
  11 H      7.538701    3.863638    3.500000    ( 0.0000,  0.0000,  0.0000)

Unit cell:
           periodic     x           y           z      points  spacing
  1. axis:    no    11.901000    0.000000    0.000000    48     0.2479
  2. axis:    no     0.000000   11.637000    0.000000    48     0.2424
  3. axis:    no     0.000000    0.000000    7.000000    28     0.2500

  Lengths:  11.901000  11.637000   7.000000
  Angles:   90.000000  90.000000  90.000000

Effective grid spacing dv^(1/3) = 0.2468

                     log10-error:    total        iterations:
           time      wfs    density  energy       fermi  poisson
iter:   1  01:10:20  -2.98          -71.626481    0             
iter:   2  01:10:21  -4.56  -2.53   -71.625582    0             
iter:   3  01:10:21  -3.49  -2.58   -71.623297    0             
iter:   4  01:10:21  -4.99  -2.94   -71.623095    0             
iter:   5  01:10:21  -4.86  -3.03   -71.622987    0             
iter:   6  01:10:22  -5.14  -3.35   -71.622983    0             
iter:   7  01:10:22  -5.37  -3.43   -71.622963    0             
iter:   8  01:10:22  -6.03  -3.58   -71.622959    0             
iter:   9  01:10:22  -6.30  -3.81   -71.622957    0             
iter:  10  01:10:23  -7.05  -3.94   -71.622958    0             
iter:  11  01:10:23  -7.76  -4.42   -71.622957    0             

Converged after 11 iterations.

Dipole moment: (0.000766, -0.000474, 0.000000) |e|*Ang

Energy contributions relative to reference atoms: (reference = -6240.709666)

Kinetic:        +44.489685
Potential:      -52.040199
External:        +0.000000
XC:             -64.357649
Entropy (-ST):   +0.000000
Local:           +0.285206
--------------------------
Free energy:    -71.622957
Extrapolated:   -71.622957

Fermi level: -3.05151

 Band  Eigenvalues  Occupancy
    0    -20.50283    2.00000
    1    -17.78249    2.00000
    2    -17.74902    2.00000
    3    -14.11456    2.00000
    4    -14.08623    2.00000
    5    -12.00886    2.00000
    6    -10.45837    2.00000
    7    -10.12750    2.00000
    8     -9.43723    2.00000
    9     -9.39871    2.00000
   10     -8.23951    2.00000
   11     -7.53008    2.00000
   12     -7.47272    2.00000
   13     -5.57565    2.00000
   14     -5.54428    2.00000
   15     -0.55874    0.00000
   16     -0.52112    0.00000
   17     -0.27913    0.00000
   18      0.72118    0.00000
   19      0.77574    0.00000
   20      0.78197    0.00000
   21      1.15481    0.00000

Gap: 4.986 eV
Transition (v -> c):
  (s=0, k=0, n=14, [0.00, 0.00, 0.00]) -> (s=0, k=0, n=15, [0.00, 0.00, 0.00])

Forces in eV/Ang:
  0 C    -0.00076    0.64809    0.00000
  1 C    -0.10150   -0.31028    0.00000
  2 C     0.03918   -0.04311    0.00000
  3 C    -0.03168   -0.01796    0.00000
  4 C     0.00918    0.03887    0.00000
  5 C    -0.00675   -0.12218    0.00000
  6 H     0.11373   -0.18639    0.00000
  7 H    -0.00267   -0.00080    0.00000
  8 H     0.00859   -0.00356    0.00000
  9 H    -0.02543   -0.00406    0.00000
 10 H     0.00118   -0.00112    0.00000
 11 H    -0.00230   -0.00330    0.00000

System changes: positions 

Initializing position-dependent things.

Density initialized from wave functions
        .----------------------------.  
       /|                            |  
      / |                            |  
     /  |                            |  
    /   |                            |  
   /    |                            |  
  /     |                            |  
 *      |       HC   C H             |  
 |      |    H C       C H           |  
 |      .------H-C---CH--------------.  
 |     /                            /   
 |    /                            /    
 |   /                            /     
 |  /                            /      
 | /                            /       
 |/                            /        
 *----------------------------*         

Positions:
   0 C      5.060376    6.923764    3.500000    ( 0.0000,  0.0000,  0.0000)
   1 C      4.556533    5.595208    3.500000    ( 0.0000,  0.0000,  0.0000)
   2 C      5.447285    4.500041    3.500000    ( 0.0000,  0.0000,  0.0000)
   3 C      6.841336    4.722820    3.500000    ( 0.0000,  0.0000,  0.0000)
   4 C      7.345150    6.041424    3.500000    ( 0.0000,  0.0000,  0.0000)
   5 C      6.454363    7.136515    3.500000    ( 0.0000,  0.0000,  0.0000)
   6 H      4.362961    7.772904    3.500000    ( 0.0000,  0.0000,  0.0000)
   7 H      3.463910    5.420191    3.500000    ( 0.0000,  0.0000,  0.0000)
   8 H      8.437720    6.216676    3.500000    ( 0.0000,  0.0000,  0.0000)
   9 H      6.849308    8.170145    3.500000    ( 0.0000,  0.0000,  0.0000)
  10 H      5.052413    3.466413    3.500000    ( 0.0000,  0.0000,  0.0000)
  11 H      7.538701    3.863638    3.500000    ( 0.0000,  0.0000,  0.0000)

Unit cell:
           periodic     x           y           z      points  spacing
  1. axis:    no    11.901000    0.000000    0.000000    48     0.2479
  2. axis:    no     0.000000   11.637000    0.000000    48     0.2424
  3. axis:    no     0.000000    0.000000    7.000000    28     0.2500

  Lengths:  11.901000  11.637000   7.000000
  Angles:   90.000000  90.000000  90.000000

Effective grid spacing dv^(1/3) = 0.2468

                     log10-error:    total        iterations:
           time      wfs    density  energy       fermi  poisson
iter:   1  01:10:24  -2.72          -71.629078    0             
iter:   2  01:10:24  -4.34  -2.41   -71.627761    0             
iter:   3  01:10:24  -3.19  -2.45   -71.623678    0             
iter:   4  01:10:24  -4.55  -2.75   -71.623311    0             
iter:   5  01:10:25  -4.62  -2.85   -71.622977    0             
iter:   6  01:10:25  -4.69  -3.13   -71.622964    0             
iter:   7  01:10:25  -5.26  -3.20   -71.622907    0             
iter:   8  01:10:25  -5.97  -3.44   -71.622902    0             
iter:   9  01:10:26  -6.03  -3.69   -71.622910    0             
iter:  10  01:10:26  -5.87  -3.64   -71.622904    0             
iter:  11  01:10:26  -7.48  -4.26   -71.622903    0             

Converged after 11 iterations.

Dipole moment: (-0.000620, 0.000320, 0.000000) |e|*Ang

Energy contributions relative to reference atoms: (reference = -6240.709666)

Kinetic:        +43.993487
Potential:      -51.635130
External:        +0.000000
XC:             -64.266941
Entropy (-ST):   +0.000000
Local:           +0.285682
--------------------------
Free energy:    -71.622903
Extrapolated:   -71.622903

Fermi level: -3.05445

 Band  Eigenvalues  Occupancy
    0    -20.47105    2.00000
    1    -17.76828    2.00000
    2    -17.74129    2.00000
    3    -14.11981    2.00000
    4    -14.08614    2.00000
    5    -12.00493    2.00000
    6    -10.49154    2.00000
    7    -10.11034    2.00000
    8     -9.43425    2.00000
    9     -9.40840    2.00000
   10     -8.21709    2.00000
   11     -7.53909    2.00000
   12     -7.48292    2.00000
   13     -5.56253    2.00000
   14     -5.53983    2.00000
   15     -0.56906    0.00000
   16     -0.53719    0.00000
   17     -0.27481    0.00000
   18      0.72526    0.00000
   19      0.77721    0.00000
   20      0.78058    0.00000
   21      1.15607    0.00000

Gap: 4.971 eV
Transition (v -> c):
  (s=0, k=0, n=14, [0.00, 0.00, 0.00]) -> (s=0, k=0, n=15, [0.00, 0.00, 0.00])
